ITEM: TIMESTEP
0
ITEM: NUMBER OF ATOMS
10000
ITEM: BOX BOUNDS pp pp pp
0.0000000000000000e+00 8.0058599999999998e+01
0.0000000000000000e+00 8.0058599999999998e+01
0.0000000000000000e+00 8.0058599999999998e+01
ITEM: ATOMS id mol type x y z xu yu zu 
4000 4 1 2.1637 0 0 2.1637 0 0 
5166 6 1 5.4094 3.2456 4.3275 5.4094 3.2456 4.3275 
5168 6 1 5.4094 4.3275 5.4094 5.4094 4.3275 5.4094 
5171 6 1 5.4094 4.3275 3.2456 5.4094 4.3275 3.2456 
5172 6 1 5.4094 5.4094 4.3275 5.4094 5.4094 4.3275 
5395 6 1 2.1637 5.4094 5.4094 2.1637 5.4094 5.4094 
ITEM: TIMESTEP
10000
ITEM: NUMBER OF ATOMS
10000
ITEM: BOX BOUNDS pp pp pp
0.0000000000000000e+00 8.0058599999999998e+01
0.0000000000000000e+00 8.0058599999999998e+01
0.0000000000000000e+00 8.0058599999999998e+01
ITEM: ATOMS id mol type x y z xu yu zu 
4000 4 1 2.1637 0 0 2.1637 0 0 
5166 6 1 5.4094 3.2456 4.3275 5.4094 3.2456 4.3275 
5168 6 1 5.4094 4.3275 5.4094 5.4094 4.3275 5.4094 
5171 6 1 5.4094 4.3275 3.2456 5.4094 4.3275 3.2456 
5172 6 1 5.4094 5.4094 4.3275 5.4094 5.4094 4.3275 
ITEM: TIMESTEP
20000
ITEM: NUMBER OF ATOMS
10000
ITEM: BOX BOUNDS pp pp pp
0.0000000000000000e+00 8.0058599999999998e+01
0.0000000000000000e+00 8.0058599999999998e+01
0.0000000000000000e+00 8.0058599999999998e+01
ITEM: ATOMS id mol type x y z xu yu zu 
4000 4 1 2.1637 0 0 2.1637 0 0 
5166 6 1 5.4094 3.2456 4.3275 5.4094 3.2456 4.3275 
5168 6 1 5.4094 4.3275 5.4094 5.4094 4.3275 5.4094 
5171 6 1 5.4094 4.3275 3.2456 5.4094 4.3275 3.2456 
5172 6 1 5.4094 5.4094 4.3275 5.4094 5.4094 4.3275 
ITEM: TIMESTEP
30000
ITEM: NUMBER OF ATOMS
10000
ITEM: BOX BOUNDS pp pp pp
0.0000000000000000e+00 8.0058599999999998e+01
0.0000000000000000e+00 8.0058599999999998e+01
0.0000000000000000e+00 8.0058599999999998e+01
ITEM: ATOMS id mol type x y z xu yu zu 
4000 4 1 2.1637 0 0 2.1637 0 0 
5166 6 1 5.4094 3.2456 4.3275 5.4094 3.2456 4.3275 
5168 6 1 5.4094 4.3275 5.4094 5.4094 4.3275 5.4094 
5171 6 1 5.4094 4.3275 3.2456 5.4094 4.3275 3.2456 
5172 6 1 5.4094 5.4094 4.3275 5.4094 5.4094 4.3275 
ITEM: TIMESTEP
40000
ITEM: NUMBER OF ATOMS
10000
ITEM: BOX BOUNDS pp pp pp
0.0000000000000000e+00 8.0058599999999998e+01
0.0000000000000000e+00 8.0058599999999998e+01
0.0000000000000000e+00 8.0058599999999998e+01
ITEM: ATOMS id mol type x y z xu yu zu 
4000 4 1 2.1637 0 0 2.1637 0 0 
5166 6 1 5.4094 3.2456 4.3275 5.4094 3.2456 4.3275 
5168 6 1 5.4094 4.3275 5.4094 5.4094 4.3275 5.4094 
5171 6 1 5.4094 4.3275 3.2456 5.4094 4.3275 3.2456 
5172 6 1 5.4094 5.4094 4.3275 5.4094 5.4094 4.3275 

