ITEM: TIMESTEP
20000
ITEM: NUMBER OF ENTRIES
20575
ITEM: BOX BOUNDS pp ff ff
0 1.1
0 0.18
0 0.08
ITEM: ENTRIES c_chain[1] c_chain[2] c_chain[3] c_chain[4] c_chain[5] c_chain[6] c_chain[7] c_chain[8] c_chain[9] c_chain[10] c_chain[11] c_chain[12] c_chain[13] c_chain[14] c_chain[15] c_chain[16] c_chain[17] 
0.00530043 0.00469077 0.00468686 1.09448 0.00636326 0.00633879 0.0011262 0.000651051 -0.000563611 -0.000464181 0.00178706 -0.000541283 224 37 1 2139.99 -294.111 
0.00530043 0.00469077 0.00468686 0.0152652 0.00585408 0.00788917 0.0011262 0.000651051 -0.000563611 -0.000428455 0.000577297 0.000563714 224 466 0 -2001.18 -213.453 
0.0152652 0.00585408 0.00788917 0.0275382 0.00643446 0.00737276 -0.000428455 0.000577297 0.000563714 -0.00309767 0.000504296 0.000728925 466 28 0 -2255.04 -113.665 
0.0152652 0.00585408 0.00788917 0.0160202 0.00642856 0.0201607 -0.000428455 0.000577297 0.000563714 0.00237668 0.000912169 0.00295415 466 505 0 73.832 -10.808 
0.0275382 0.00643446 0.00737276 0.0408039 0.00685361 0.00876352 -0.00309767 0.000504296 0.000728925 -0.00113285 0.000244748 -0.00416936 28 217 0 -2087.01 -81.399 
0.0275382 0.00643446 0.00737276 0.0300941 0.0185996 0.00609647 -0.00309767 0.000504296 0.000728925 0.00269322 0.00132915 -0.00173571 28 16 0 -1564.72 -10172.3 
0.0408039 0.00685361 0.00876352 0.0412775 0.0183255 0.00514369 -0.00113285 0.000244748 -0.00416936 0.00319012 0.000343527 0.00251581 217 577 0 -41.9889 -11338.8 
0.0408039 0.00685361 0.00876352 0.0512668 0.0125139 0.00546506 -0.00113285 0.000244748 -0.00416936 -0.0026372 0.00117949 -0.00111919 217 315 0 -6801.93 -3555.23 
0.0408039 0.00685361 0.00876352 0.0336348 0.0142667 0.0176386 -0.00113285 0.000244748 -0.00416936 0.000428969 -0.00222729 0.00162697 217 44 0 6186.84 -6505.12 
0.0408039 0.00685361 0.00876352 0.0459684 0.0168076 0.0152449 -0.00113285 0.000244748 -0.00416936 -0.000677697 -0.00268393 -5.12759e-06 217 326 0 -2117.07 -4419.74 
0.0603832 0.00582582 0.0058032 0.0512668 0.0125139 0.00546506 -0.00222653 0.00366783 -0.00336281 -0.0026372 0.00117949 -0.00111919 182 315 0 3840.06 -3009.89 
0.0603832 0.00582582 0.0058032 0.0718101 0.0114709 0.00698093 -0.00222653 0.00366783 -0.00336281 -0.00401839 -0.000566727 0.00429072 182 480 0 -12294.6 -6493.05 
0.0603832 0.00582582 0.0058032 0.0548879 0.00722265 0.0175387 -0.00222653 0.00366783 -0.00336281 0.00388756 -0.000150549 0.000934992 182 230 0 7684.21 -2176.23 
0.102032 0.00937354 0.004949 0.105884 0.0195669 0.00595934 -0.00309589 -0.00211345 0.00151031 0.000567786 -0.00199621 0.00034148 174 137 0 -2027.59 -6147.51 
0.102032 0.00937354 0.004949 0.0980468 0.00693738 0.013429 -0.00309589 -0.00211345 0.00151031 0.00139145 0.00453763 0.00294792 174 575 0 3355.06 2382.48 
0.124897 0.00715183 0.00628669 0.125993 0.0183546 0.00998611 0.000827462 0.000601574 -0.0035647 0.00125812 -0.00111643 -0.0022689 451 1355 0 -367.41 -4149.59 
0.124897 0.00715183 0.00628669 0.135531 0.011583 0.00525762 0.000827462 0.000601574 -0.0035647 7.82494e-07 -3.55133e-05 0.00550068 451 1505 0 -14854 -6247.18 
0.124897 0.00715183 0.00628669 0.117874 0.0115563 0.0165315 0.000827462 0.000601574 -0.0035647 0.00381289 -0.00208968 0.00268837 451 244 0 7619.22 -4870.02 
0.154776 0.00701118 0.0060936 0.163082 0.0134516 0.00448759 0.00296615 -0.00107441 -0.00330575 -0.000442819 0.00220782 -0.000705099 1396 580 0 -3477.15 -2290.79 
0.154776 0.00701118 0.0060936 0.152247 0.0170392 0.0135257 0.00296615 -0.00107441 -0.00330575 0.000257932 -0.000494779 0.00176134 1396 1173 0 3375.27 -14196.7 
0.154776 0.00701118 0.0060936 0.162613 0.0104186 0.014176 0.00296615 -0.00107441 -0.00330575 -0.00632531 0.00104988 0.00227092 1396 1165 0 -9677.24 -3574.58 
0.184964 0.00627713 0.00550078 0.190835 0.0090843 0.0141123 0.00139064 0.000521883 -0.000581943 -0.00281237 6.97523e-05 -0.00329006 1323 1240 0 -6725.88 -3059.06 
0.184964 0.00627713 0.00550078 0.17778 0.0108086 0.0135519 0.00139064 0.000521883 -0.000581943 0.00236713 -0.000219698 0.0035886 1323 1458 0 3954.9 -2566.46 
0.214939 0.00651767 0.00576216 0.223524 0.0128982 0.00497111 -0.00480212 -0.00216417 -0.00267949 0.000422061 -0.0041683 0.00278945 1467 1315 0 -11630.6 -9328.84 
0.214939 0.00651767 0.00576216 0.215019 0.0155567 0.0120594 -0.00480212 -0.00216417 -0.00267949 0.00216513 0.000833151 -0.0023589 1467 1048 0 717.573 -15070.3 
0.246583 0.00818302 0.00943231 0.23484 0.0126984 0.00643543 -0.00177934 0.000717298 0.00240677 0.00132155 0.0021658 -0.00177198 1548 1217 0 11421.6 -4081.48 
0.246583 0.00818302 0.00943231 0.257565 0.015506 0.00691356 -0.00177934 0.000717298 0.00240677 0.00178522 0.000711803 0.00160216 1548 1408 0 -8257.58 -5720.29 
0.246583 0.00818302 0.00943231 0.239557 0.0104462 0.0204199 -0.00177934 0.000717298 0.00240677 0.00243522 0.000420867 -0.00189186 1548 1424 0 2268.6 -590.942 
0.268204 0.00975966 0.00982058 0.279003 0.00890458 0.00599757 -0.00369536 0.00339144 0.0109617 -0.00091131 -0.00285197 -8.69212e-05 1470 2075 0 -8001.56 189.837 
0.268204 0.00975966 0.00982058 0.257565 0.015506 0.00691356 -0.00369536 0.00339144 0.0109617 0.00178522 0.000711803 0.00160216 1470 1408 0 8074.44 -4371.28 
0.268204 0.00975966 0.00982058 0.27337 0.0203134 0.00668925 -0.00369536 0.00339144 0.0109617 0.00318399 0.000396095 -0.00432126 1470 1411 0 -13135.6 -29073.9 
0.268204 0.00975966 0.00982058 0.274951 0.00723687 0.0192714 -0.00369536 0.00339144 0.0109617 -0.00343609 0.00258089 0.000753213 1470 1410 0 -4689.96 1677.48 
0.279003 0.00890458 0.00599757 0.288775 0.0168408 0.00657515 -0.00091131 -0.00285197 -8.69212e-05 -0.000922664 0.00107948 0.00122511 2075 2213 0 -6514.51 -4811.08 
0.279003 0.00890458 0.00599757 0.27337 0.0203134 0.00668925 -0.00091131 -0.00285197 -8.69212e-05 0.00318399 0.000396095 -0.00432126 2075 1411 0 2746.75 -4767.3 
0.305029 0.00564943 0.00537583 0.299405 0.0134916 0.00469701 0.0024692 0.00079815 0.000981348 -0.00184784 -0.00261596 -0.00175041 2349 2495 0 2947.11 -4775.54 
0.368229 0.00732055 0.00492445 0.361068 0.0103629 0.0143672 -0.00279006 4.92855e-05 -0.00190878 -0.000102312 0.000821137 0.000684631 2092 2381 0 6463.38 -2530.36 
0.368229 0.00732055 0.00492445 0.375389 0.0133519 0.0123091 -0.00279006 4.92855e-05 -0.00190878 -0.00350778 -0.00100523 0.00460473 2092 2551 0 -3951.26 -3362.16 
0.429845 0.00963246 0.00622801 0.430581 0.0228212 0.0069781 -0.00187763 -0.000727439 -0.000304487 0.000152061 0.000317249 -0.000130108 2514 3581 0 -149.658 -6302.51 
0.429845 0.00963246 0.00622801 0.424109 0.00675013 0.0161204 -0.00187763 -0.000727439 -0.000304487 0.00314747 -0.00062456 0.000832782 2514 3336 0 2155.48 927.731 
0.451953 0.00732973 0.00503591 0.442421 0.0146489 0.00703799 0.00404137 0.00235243 -0.00487248 0.00485508 -0.000306208 -0.00238579 3440 3507 0 8079.45 -6434.2 
0.451953 0.00732973 0.00503591 0.44931 0.00843609 0.0145005 0.00404137 0.00235243 -0.00487248 0.00248726 0.00378199 -0.00640119 3440 3269 0 1142.75 -281.535 
0.451953 0.00732973 0.00503591 0.461181 0.0114554 0.012 0.00404137 0.00235243 -0.00487248 -0.00704981 -0.00191929 0.00330512 3440 3076 0 -16106.1 -7093.06 
0.482536 0.00875753 0.00869721 0.471891 0.0132728 0.00542977 -0.00160902 0.00183648 0.000135665 -0.000611641 -0.00164465 -0.000547569 3381 3556 0 4129.61 -1961.56 
0.482536 0.00875753 0.00869721 0.495006 0.0128279 0.00668797 -0.00160902 0.00183648 0.000135665 -0.00916559 -0.00362803 -0.000657501 3381 3164 0 -9410.65 -3251.63 
0.482536 0.00875753 0.00869721 0.480692 0.00834019 0.0205084 -0.00160902 0.00183648 0.000135665 0.00663109 -0.00210026 -0.00199916 3381 3093 0 906.714 -136.856 
0.547644 0.00656763 0.00453337 0.538034 0.0101182 0.00572427 -0.00552009 0.00177816 -0.00360094 -8.77838e-05 0.00303879 -0.00591414 4412 3205 0 5013.39 -1556.91 
0.547644 0.00656763 0.00453337 0.556264 0.0143598 0.0074521 -0.00552009 0.00177816 -0.00360094 -0.00495557 -0.000854285 0.000430872 4412 4352 0 -3702.86 -3573.54 
0.547644 0.00656763 0.00453337 0.546087 0.00834047 0.0157268 -0.00552009 0.00177816 -0.00360094 -0.00458606 -0.00325179 -0.00203905 4412 3416 0 1968.86 -2532.25 
0.00159328 0.0154932 0.00522898 1.09448 0.00636326 0.00633879 0.00318904 -0.000973427 -0.000148197 -0.000464181 0.00178706 -0.000541283 331 37 1 4579.97 6506.98 
0.00159328 0.0154932 0.00522898 0.00890384 0.0141654 0.0136028 0.00318904 -0.000973427 -0.000148197 0.00328855 -0.00166639 -0.00181337 331 66 0 -7842.6 1393.2 
0.0300941 0.0185996 0.00609647 0.0412775 0.0183255 0.00514369 0.00269322 0.00132915 -0.00173571 0.00319012 0.000343527 0.00251581 16 577 0 -11254.7 183.534 
0.0300941 0.0185996 0.00609647 0.0215758 0.0248555 0.00461423 0.00269322 0.00132915 -0.00173571 -0.00298357 -0.000785423 0.00377114 16 15 0 12236.6 -9766.36 
0.0300941 0.0185996 0.00609647 0.0336348 0.0142667 0.0176386 0.00269322 0.00132915 -0.00173571 0.000428969 -0.00222729 0.00162697 16 44 0 -936.044 792.591 
0.0300941 0.0185996 0.00609647 0.0374632 0.0259972 0.0130546 0.00269322 0.00132915 -0.00173571 -0.000285594 0.000318368 -0.000566211 16 403 0 -1319.89 -1202.55 
0.0412775 0.0183255 0.00514369 0.0473772 0.0267926 0.00530776 0.00319012 0.000343527 0.00251581 0.000808463 0.00281887 -0.00688013 577 99 0 -8306.73 -10790 
0.0412775 0.0183255 0.00514369 0.0459684 0.0168076 0.0152449 0.00319012 0.000343527 0.00251581 -0.000677697 -0.00268393 -5.12759e-06 577 326 0 -3041.28 714.31 
0.0412775 0.0183255 0.00514369 0.0374632 0.0259972 0.0130546 0.00319012 0.000343527 0.00251581 -0.000285594 0.000318368 -0.000566211 577 403 0 263.088 -832.611 
0.0512668 0.0125139 0.00546506 0.0574524 0.022074 0.00853636 -0.0026372 0.00117949 -0.00111919 -0.000245265 -0.00339659 0.000324965 315 501 0 -3665.95 -6345.38 
0.0718101 0.0114709 0.00698093 0.0683101 0.0228532 0.00509145 -0.00401839 -0.000566727 0.00429072 -0.00170539 0.00368811 -0.00582976 480 237 0 7328.47 -22767.8 
0.0718101 0.0114709 0.00698093 0.080526 0.0227909 0.00756001 -0.00401839 -0.000566727 0.00429072 7.60921e-05 -0.00222327 -0.00290928 480 272 0 -6064.87 -8455.77 
0.0718101 0.0114709 0.00698093 0.0725999 0.0191224 0.0155092 -0.00401839 -0.000566727 0.00429072 0.00103143 -0.000475821 0.000434783 480 18 0 -115.719 -4963.69 
0.0890615 0.0112005 0.00707819 0.080526 0.0227909 0.00756001 0.00253456 -0.00101247 0.0010132 7.60921e-05 -0.00222327 -0.00290928 549 272 0 6580.61 -9394.22 
0.0890615 0.0112005 0.00707819 0.0980468 0.00693738 0.013429 0.00253456 -0.00101247 0.0010132 0.00139145 0.00453763 0.00294792 549 575 0 -8241.43 4490 
0.0890615 0.0112005 0.00707819 0.0824782 0.0145198 0.0191063 0.00253456 -0.00101247 0.0010132 0.0011212 -6.82173e-05 -0.000632816 549 551 0 876.49 -440.005 
0.0890615 0.0112005 0.00707819 0.0946983 0.0176558 0.0167867 0.00253456 -0.00101247 0.0010132 0.000426818 0.000229962 -0.00107784 549 238 0 -109.441 -59.0954 
0.105884 0.0195669 0.00595934 0.113866 0.0117886 0.00515438 0.000567786 -0.00199621 0.00034148 0.00422386 -0.00397306 0.0051627 137 53 0 -3960.37 3926.85 
0.105884 0.0195669 0.00595934 0.106038 0.012574 0.0145997 0.000567786 -0.00199621 0.00034148 0.000749965 -0.000718908 0.000845765 137 186 0 60.9668 2337.41 
0.105884 0.0195669 0.00595934 0.104159 0.0293353 0.0112316 0.000567786 -0.00199621 0.00034148 -0.00336304 -0.000738195 0.00120279 137 274 0 1968.39 -13322.4 
0.113866 0.0117886 0.00515438 0.11771 0.0207977 0.0045957 0.00422386 -0.00397306 0.0051627 -0.00116991 0.00144954 -0.00176782 53 78 0 -3924.33 -7732.11 
0.113866 0.0117886 0.00515438 0.117874 0.0115563 0.0165315 0.00422386 -0.00397306 0.0051627 0.00381289 -0.00208968 0.00268837 53 244 0 -4632.53 354.463 
0.125993 0.0183546 0.00998611 0.11771 0.0207977 0.0045957 0.00125812 -0.00111643 -0.0022689 -0.00116991 0.00144954 -0.00176782 1355 78 0 2691.52 -586.598 
0.125993 0.0183546 0.00998611 0.131957 0.0245893 0.00461748 0.00125812 -0.00111643 -0.0022689 0.000515761 0.000543879 0.00181116 1355 1302 0 -3001.78 -3024.55 
0.125993 0.0183546 0.00998611 0.122623 0.0301988 0.00881421 0.00125812 -0.00111643 -0.0022689 0.000283362 4.04085e-06 0.00107892 1355 1339 0 12.0089 -45.4811 
0.125993 0.0183546 0.00998611 0.117874 0.0115563 0.0165315 0.00125812 -0.00111643 -0.0022689 0.00381289 -0.00208968 0.00268837 1355 244 0 2667.01 2059.42 
0.125993 0.0183546 0.00998611 0.130091 0.0232022 0.0183094 0.00125812 -0.00111643 -0.0022689 0.0011522 0.00183668 -0.00339596 1355 356 0 -2321.92 -2514.84 
0.135531 0.011583 0.00525762 0.139805 0.0205739 0.0112958 7.82494e-07 -3.55133e-05 0.00550068 0.000545658 0.00208181 -0.0014604 1505 1313 0 -8472.8 -17755.1 
0.163082 0.0134516 0.00448759 0.172304 0.0169137 0.00539389 -0.000442819 0.00220782 -0.000705099 0.000438809 -0.00200244 -0.00113416 580 1341 0 -3781.72 -1728.8 
0.163082 0.0134516 0.00448759 0.15965 0.0221672 0.00487713 -0.000442819 0.00220782 -0.000705099 -0.000870587 0.000105932 0.000203254 580 1306 0 422.882 -1198.89 
0.163082 0.0134516 0.00448759 0.162613 0.0104186 0.014176 -0.000442819 0.00220782 -0.000705099 -0.00632531 0.00104988 0.00227092 580 1165 0 -166.582 652.128 
0.172304 0.0169137 0.00539389 0.168136 0.026027 0.00881447 0.000438809 -0.00200244 -0.00113416 6.71062e-05 -0.00238693 -0.000104465 1341 1215 0 752.66 -1677.66 
0.172304 0.0169137 0.00539389 0.176923 0.0257374 0.00456672 0.000438809 -0.00200244 -0.00113416 -6.90548e-05 0.00142288 0.000616493 1341 1053 0 -1863.66 -3330.12 
0.172304 0.0169137 0.00539389 0.17778 0.0108086 0.0135519 0.000438809 -0.00200244 -0.00113416 0.00236713 -0.000219698 0.0035886 1341 1458 0 -2454.89 2998.28 
0.186266 0.0189734 0.0072043 0.196254 0.011865 0.00519602 -0.000275109 -0.00112757 -0.00142171 0.00215744 0.00161859 -0.00143434 1137 1433 0 -7839.12 5990.19 
0.186266 0.0189734 0.0072043 0.176923 0.0257374 0.00456672 -0.000275109 -0.00112757 -0.00142171 -6.90548e-05 0.00142288 0.000616493 1137 1053 0 3900.97 -2550.4 
0.186266 0.0189734 0.0072043 0.17778 0.0108086 0.0135519 -0.000275109 -0.00112757 -0.00142171 0.00236713 -0.000219698 0.0035886 1137 1458 0 9523.33 9004.85 
0.186266 0.0189734 0.0072043 0.185735 0.0168565 0.0199767 -0.000275109 -0.00112757 -0.00142171 0.000181734 0.000911016 -0.000436698 1137 1262 0 15.5352 148.872 
0.186266 0.0189734 0.0072043 0.178118 0.0262524 0.0156753 -0.000275109 -0.00112757 -0.00142171 0.000839409 0.00142515 -0.000671304 1137 1340 0 3311.5 -2631.34 
0.186266 0.0189734 0.0072043 0.193183 0.0272687 0.0140481 -0.000275109 -0.00112757 -0.00142171 -0.00378349 -0.00084207 0.003851 1137 1417 0 -9012.88 -10297.4 
0.196254 0.011865 0.00519602 0.205774 0.0163258 0.00526556 0.00215744 0.00161859 -0.00143434 0.000579192 -0.000613386 -0.00214729 1433 1113 0 -2217.71 -1147.21 
0.196254 0.011865 0.00519602 0.196874 0.0173608 0.0137646 0.00215744 0.00161859 -0.00143434 -0.000967418 0.000230011 0.0039953 1433 1088 0 -328.126 -1661.25 
0.205774 0.0163258 0.00526556 0.21388 0.0225558 0.00483618 0.000579192 -0.000613386 -0.00214729 -0.000722363 0.00217059 -0.000231671 1113 1554 0 -864.21 -534.331 
0.205774 0.0163258 0.00526556 0.206526 0.0100579 0.013299 0.000579192 -0.000613386 -0.00214729 0.0032718 4.51302e-05 0.00528906 1113 1064 0 -422.984 5338.67 
0.205774 0.0163258 0.00526556 0.20659 0.0251013 0.0144926 0.000579192 -0.000613386 -0.00214729 -0.000641561 -0.0032328 -0.000868881 1113 1292 0 -642.42 -6206.46 
0.223524 0.0128982 0.00497111 0.23484 0.0126984 0.00643543 0.000422061 -0.0041683 0.00278945 0.00132155 0.0021658 -0.00177198 1315 1217 0 -10584.3 761.371 
0.223524 0.0128982 0.00497111 0.224802 0.0238717 0.00612373 0.000422061 -0.0041683 0.00278945 0.000146368 0.000565478 -0.00025012 1315 1441 0 -1302.46 -10367.4 
0.23484 0.0126984 0.00643543 0.243766 0.0207443 0.00556251 0.00132155 0.0021658 -0.00177198 0.00244572 0.000230816 -0.00146443 1217 1556 0 -5834.72 -5578.9 
0.23484 0.0126984 0.00643543 0.232947 0.0216944 0.0162405 0.00132155 0.0021658 -0.00177198 -0.00126566 -0.00174156 0.00139475 1217 1495 0 1319.58 -8054.28 
0.257565 0.015506 0.00691356 0.260014 0.028262 0.00603773 0.00178522 0.000711803 0.00160216 -0.00189868 0.00226332 -0.00237497 1408 1185 0 -2652.58 -11719.1 
0.257565 0.015506 0.00691356 0.254 0.0125898 0.0199762 0.00178522 0.000711803 0.00160216 -0.00397715 -0.00243311 0.000711665 1408 1172 0 2636.89 2098.45 
0.288775 0.0168408 0.00657515 0.299405 0.0134916 0.00469701 -0.000922664 0.00107948 0.00122511 -0.00184784 -0.00261596 -0.00175041 2213 2495 0 -5629.86 1450.97 
0.288775 0.0168408 0.00657515 0.284769 0.0105969 0.0151946 -0.000922664 0.00107948 0.00122511 -0.00799623 -0.00479474 0.00105282 2213 2460 0 4254.54 7189.9 
0.288775 0.0168408 0.00657515 0.294272 0.0287729 0.0108409 -0.000922664 0.00107948 0.00122511 0.00184224 0.000913215 0.00157044 2213 2056 0 -6012.62 -13683.6 
0.299405 0.0134916 0.00469701 0.306659 0.022533 0.00712212 -0.00184784 -0.00261596 -0.00175041 -0.00117408 -0.00201254 -0.000750075 2495 2484 0 -2803.55 -3531.2 
0.316443 0.0131511 0.00608278 0.329428 0.0163204 0.00728857 -0.00159472 0.00107186 -0.00198628 -0.0013973 -0.00242774 -0.000842814 2449 2598 0 -10278.9 -2831.01 
0.316443 0.0131511 0.00608278 0.309821 0.00870308 0.0144319 -0.00159472 0.00107186 -0.00198628 -0.00338788 -0.00368223 -0.000533569 2449 2269 0 8430.78 5203.92 
0.316443 0.0131511 0.00608278 0.314389 0.0184412 0.01616 -0.00159472 0.00107186 -0.00198628 -6.83374e-05 0.00131878 0.000945548 2449 2196 0 1045.23 -2331.34 
0.329428 0.0163204 0.00728857 0.341335 0.0102454 0.00609404 -0.0013973 -0.00242774 -0.000842814 -0.00457732 -0.00316415 -0.00538764 2598 2171 0 -12016.7 5753.52 
0.329428 0.0163204 0.00728857 0.319929 0.0266314 0.00674126 -0.0013973 -0.00242774 -0.000842814 0.000411611 0.000480252 0.00122093 2598 2316 0 15459.3 -16104.9 
0.329428 0.0163204 0.00728857 0.335538 0.0273857 0.00541222 -0.0013973 -0.00242774 -0.000842814 -0.00280697 -0.00155228 0.00335611 2598 2412 0 -5312.56 -9242.05 
0.329428 0.0163204 0.00728857 0.33508 0.00793094 0.0174189 -0.0013973 -0.00242774 -0.000842814 0.00658579 -2.19535e-05 0.00172533 2598 2151 0 -9084.13 15328.7 
0.341335 0.0102454 0.00609404 0.345733 0.0217141 0.00617961 -0.00457732 -0.00316415 -0.00538764 -0.00331889 0.000372961 0.00192842 2171 2369 0 -9617.64 -24963 
0.341335 0.0102454 0.00609404 0.33508 0.00793094 0.0174189 -0.00457732 -0.00316415 -0.00538764 0.00658579 -2.19535e-05 0.00172533 2171 2151 0 10079.9 3567.26 
0.389306 0.0104284 0.00657429 0.382228 0.0189964 0.00469607 0.00814066 -0.000508789 -0.0030534 -0.00512127 -0.00574089 -0.00325312 2264 2611 0 13613.5 -19351.7 
0.389306 0.0104284 0.00657429 0.401965 0.0105204 0.00609915 0.00814066 -0.000508789 -0.0030534 0.00547059 0.00614565 0.00530304 2264 2233 0 -22686.1 461.817 
0.389306 0.0104284 0.00657429 0.395938 0.00780095 0.0174984 0.00814066 -0.000508789 -0.0030534 -0.00253935 -0.000744504 -0.000685296 2264 2477 0 -4962.05 1536.78 
0.389306 0.0104284 0.00657429 0.389545 0.0202338 0.0145443 0.00814066 -0.000508789 -0.0030534 -0.00251495 0.00201705 0.00468719 2264 2421 0 -1708.51 -17917.9 
0.382228 0.0189964 0.00469607 0.373102 0.0254881 0.00661904 -0.00512127 -0.00574089 -0.00325312 0.000178517 0.00326589 -0.00172773 2611 2437 0 15151.7 -9579.32 
0.382228 0.0189964 0.00469607 0.386095 0.0273315 0.00444592 -0.00512127 -0.00574089 -0.00325312 0.00809805 -0.00730236 -0.00136183 2611 2481 0 -5416.77 -14249.6 
0.382228 0.0189964 0.00469607 0.375389 0.0133519 0.0123091 -0.00512127 -0.00574089 -0.00325312 -0.00350778 -0.00100523 0.00460473 2611 2551 0 4926.05 4131.8 
0.401965 0.0105204 0.00609915 0.396418 0.0204793 0.00534763 0.00547059 0.00614565 0.00530304 -0.00410255 0.00212971 -0.00812898 2233 2392 0 14145 -28912.9 
0.401965 0.0105204 0.00609915 0.408437 0.0206799 0.00596036 0.00547059 0.00614565 0.00530304 0.00214892 0.00181624 -0.000272804 2233 3323 0 -8248.94 -12931.1 
0.401965 0.0105204 0.00609915 0.405704 0.0145922 0.0163115 0.00547059 0.00614565 0.00530304 0.00159857 -0.00131124 0.000777118 2233 2272 0 -1711.01 -2374.62 
0.442421 0.0146489 0.00703799 0.44931 0.00843609 0.0145005 0.00485508 -0.000306208 -0.00238579 0.00248726 0.00378199 -0.00640119 3507 3269 0 -6810.91 6716.17 
0.442421 0.0146489 0.00703799 0.434611 0.0125628 0.0181515 0.00485508 -0.000306208 -0.00238579 0.00707622 0.00398975 -4.51035e-05 3507 3518 0 3849.4 1451.42 
0.442421 0.0146489 0.00703799 0.440178 0.0241835 0.0161885 0.00485508 -0.000306208 -0.00238579 -0.00506107 0.000986141 0.0050201 3507 3559 0 6414.73 -34420 
0.471891 0.0132728 0.00542977 0.465727 0.0240665 0.00708208 -0.000611641 -0.00164465 -0.000547569 0.00366473 -0.00208662 -0.00130196 3556 3354 0 1856.78 -2753.79 
0.471891 0.0132728 0.00542977 0.461181 0.0114554 0.012 -0.000611641 -0.00164465 -0.000547569 -0.00704981 -0.00191929 0.00330512 3556 3076 0 1932.57 297.811 
0.495006 0.0128279 0.00668797 0.490846 0.0229235 0.0044689 -0.00916559 -0.00362803 -0.000657501 0.00716743 0.0055441 0.00137897 3164 3491 0 13074.7 -25793 
0.495006 0.0128279 0.00668797 0.491692 0.0103324 0.0186879 -0.00916559 -0.00362803 -0.000657501 0.00231091 0.00538431 0.000315164 3164 3126 0 2686.05 2040.38 
0.495006 0.0128279 0.00668797 0.499789 0.0243344 0.0105095 -0.00916559 -0.00362803 -0.000657501 0.0031834 -0.00223742 0.000339701 3164 3565 0 -7140.99 -20681.5 
0.510033 0.0102339 0.00671671 0.508848 0.021425 0.00471673 0.000313725 0.000516123 -0.00356248 0.000419442 0.000139922 0.00553521 3543 3270 0 1740.09 -16025.3 
0.510033 0.0102339 0.00671671 0.518845 0.00922818 0.0163145 0.000313725 0.000516123 -0.00356248 -0.00649481 -0.000469153 0.0021364 3543 3451 0 -11750.9 1224.23 
0.510033 0.0102339 0.00671671 0.503518 0.0130753 0.0175595 0.000313725 0.000516123 -0.00356248 -0.000789613 0.000769212 0.00138619 3543 3532 0 1329.35 -623.47 
0.52604 0.0132323 0.00646206 0.532164 0.0245132 0.00631076 -0.00403266 -0.00231598 0.0014004 0.00379613 -0.00327219 0.00317785 3282 3534 0 -5902.92 -12529.6 
0.52604 0.0132323 0.00646206 0.518845 0.00922818 0.0163145 -0.00403266 -0.00231598 0.0014004 -0.00649481 -0.000469153 0.0021364 3282 3451 0 8086.04 4763.62 
0.52604 0.0132323 0.00646206 0.526052 0.0180412 0.0169592 -0.00403266 -0.00231598 0.0014004 0.00173554 -0.00258835 9.01107e-05 3282 3235 0 523.438 -2256.39 
0.538034 0.0101182 0.00572427 0.544096 0.0204374 0.00627621 -8.77838e-05 0.00303879 -0.00591414 0.00271804 0.00424403 -0.000870472 3205 3401 0 -15987.8 -27595.5 
0.538034 0.0101182 0.00572427 0.535811 0.0168232 0.0140302 -8.77838e-05 0.00303879 -0.00591414 -0.00656558 -0.00502538 0.0026011 3205 3251 0 1739.32 -8182.63 
0.00999727 0.0258301 0.00732053 0.0215758 0.0248555 0.00461423 -0.00156927 7.71427e-05 -0.000516492 -0.00298357 -0.000785423 0.00377114 204 15 0 -21107.1 1694.2 
0.00999727 0.0258301 0.00732053 0.0186492 0.0336777 0.00462318 -0.00156927 7.71427e-05 -0.000516492 -0.000993919 -0.000237334 0.00121877 204 34 0 -1245.52 -1164.84 
0.00999727 0.0258301 0.00732053 0.00890384 0.0141654 0.0136028 -0.00156927 7.71427e-05 -0.000516492 0.00328855 -0.00166639 -0.00181337 204 66 0 1345.86 8312.7 
0.00999727 0.0258301 0.00732053 0.00226771 0.0232171 0.0179964 -0.00156927 7.71427e-05 -0.000516492 0.000104584 -0.000402556 0.00111736 204 557 0 4746.49 1478.14 
0.00999727 0.0258301 0.00732053 0.0129948 0.0276675 0.0198492 -0.00156927 7.71427e-05 -0.000516492 0.00146201 -0.000228406 -0.00152663 204 273 0 -364.478 -313.059 
0.00999727 0.0258301 0.00732053 0.0116386 0.037756 0.0131976 -0.00156927 7.71427e-05 -0.000516492 0.00261107 -0.000222161 0.000905366 204 75 0 -905.285 -9976.1 
0.0215758 0.0248555 0.00461423 0.0186492 0.0336777 0.00462318 -0.00298357 -0.000785423 0.00377114 -0.000993919 -0.000237334 0.00121877 15 34 0 210.854 -435.489 
0.0215758 0.0248555 0.00461423 0.0295154 0.0312544 0.00561853 -0.00298357 -0.000785423 0.00377114 0.00198553 -0.00365696 -0.00180085 15 19 0 -8739.64 -7776.62 
0.0473772 0.0267926 0.00530776 0.0574524 0.022074 0.00853636 0.000808463 0.00281887 -0.00688013 -0.000245265 -0.00339659 0.000324965 99 501 0 -13884.5 5687.95 
0.0473772 0.0267926 0.00530776 0.0397534 0.0333792 0.00481423 0.000808463 0.00281887 -0.00688013 -0.000904152 -0.000919699 0.00321187 99 310 0 10603.9 -9647.7 
0.0473772 0.0267926 0.00530776 0.0536272 0.0358486 0.00572334 0.000808463 0.00281887 -0.00688013 0.000655746 -0.000386744 0.00180138 99 256 0 -4691.67 -7099.33 
0.0574524 0.022074 0.00853636 0.0683101 0.0228532 0.00509145 -0.000245265 -0.00339659 0.000324965 -0.00170539 0.00368811 -0.00582976 501 237 0 -16473.9 -172.605 
0.0574524 0.022074 0.00853636 0.0583426 0.0317295 0.0161162 -0.000245265 -0.00339659 0.000324965 0.00246392 0.00187229 -0.00200898 501 485 0 -117.561 -2274.64 
0.0574524 0.022074 0.00853636 0.0594102 0.0200621 0.0214908 -0.000245265 -0.00339659 0.000324965 0.00174649 0.00326131 0.000604798 501 194 0 -1053.36 1892.22 
0.0683101 0.0228532 0.00509145 0.080526 0.0227909 0.00756001 -0.00170539 0.00368811 -0.00582976 7.60921e-05 -0.00222327 -0.00290928 237 272 0 -3339.23 -372.753 
0.0683101 0.0228532 0.00509145 0.071503 0.0343384 0.00838639 -0.00170539 0.00368811 -0.00582976 0.00137355 0.000388813 0.00275844 237 534 0 -5950.97 -23073.6 
0.080526 0.0227909 0.00756001 0.085323 0.0349115 0.00586083 7.60921e-05 -0.00222327 -0.00290928 -0.000125493 0.000817707 0.00538611 272 243 0 -9602.86 -23661.9 
0.080526 0.0227909 0.00756001 0.0725999 0.0191224 0.0155092 7.60921e-05 -0.00222327 -0.00290928 0.00103143 -0.000475821 0.000434783 272 18 0 6886.38 3332.35 
0.080526 0.0227909 0.00756001 0.0824782 0.0145198 0.0191063 7.60921e-05 -0.00222327 -0.00290928 0.0011212 -6.82173e-05 -0.000632816 272 551 0 -136.483 1123.96 
0.0943663 0.0245725 0.00653093 0.0946983 0.0176558 0.0167867 -0.000239644 3.23541e-05 8.88331e-05 0.000426818 0.000229962 -0.00107784 201 238 0 -52.4178 2330.02 
0.0943663 0.0245725 0.00653093 0.104159 0.0293353 0.0112316 -0.000239644 3.23541e-05 8.88331e-05 -0.00336304 -0.000738195 0.00120279 201 274 0 -1075.68 -488.602 
0.0943663 0.0245725 0.00653093 0.0915382 0.0302719 0.0188651 -0.000239644 3.23541e-05 8.88331e-05 0.000158308 -0.000203137 -0.00138223 201 169 0 936.424 -1863.74 
0.11771 0.0207977 0.0045957 0.122623 0.0301988 0.00881421 -0.00116991 0.00144954 -0.00176782 0.000283362 4.04085e-06 0.00107892 78 1339 0 -3340.76 -7004.53 
0.11771 0.0207977 0.0045957 0.114881 0.0226084 0.0135457 -0.00116991 0.00144954 -0.00176782 -0.00350291 8.34327e-05 -0.00256039 78 248 0 2125.01 -1672.19 
0.131957 0.0245893 0.00461748 0.139109 0.0323155 0.00596199 0.000515761 0.000543879 0.00181116 0.00122114 -0.000150288 -0.00165239 1302 1473 0 -2738.16 -3078.94 
0.131957 0.0245893 0.00461748 0.139805 0.0205739 0.0112958 0.000515761 0.000543879 0.00181116 0.000545658 0.00208181 -0.0014604 1302 1313 0 -120.853 106.7 
0.149873 0.0267325 0.00590076 0.15965 0.0221672 0.00487713 -0.00140302 0.000187987 -0.0022213 -0.000870587 0.000105932 0.000203254 1406 1306 0 -251.135 107.438 
0.149873 0.0267325 0.00590076 0.149914 0.0382064 0.00551231 -0.00140302 0.000187987 -0.0022213 -0.00160724 0.000368437 0.00116087 1406 1514 0 30.9224 -4362.22 
0.149873 0.0267325 0.00590076 0.159988 0.0328858 0.00585942 -0.00140302 0.000187987 -0.0022213 -0.000996696 0.000681164 0.000488707 1406 1271 0 -2582.5 -1518.87 
0.149873 0.0267325 0.00590076 0.152247 0.0170392 0.0135257 -0.00140302 0.000187987 -0.0022213 0.000257932 -0.000494779 0.00176134 1406 1173 0 -2329.76 10134 
0.149873 0.0267325 0.00590076 0.145315 0.0309042 0.0167682 -0.00140302 0.000187987 -0.0022213 -0.000393586 -0.000241215 0.00459857 1406 1136 0 4704.54 -4278.53 
0.15965 0.0221672 0.00487713 0.159988 0.0328858 0.00585942 -0.000870587 0.000105932 0.000203254 -0.000996696 0.000681164 0.000488707 1306 1271 0 -52.2866 -961.727 
0.168136 0.026027 0.00881447 0.176923 0.0257374 0.00456672 6.71062e-05 -0.00238693 -0.000104465 -6.90548e-05 0.00142288 0.000616493 1215 1053 0 -4883.24 385.683 
0.168136 0.026027 0.00881447 0.159988 0.0328858 0.00585942 6.71062e-05 -0.00238693 -0.000104465 -0.000996696 0.000681164 0.000488707 1215 1271 0 4513.14 -3610.86 
0.168136 0.026027 0.00881447 0.165878 0.0339492 0.0153594 6.71062e-05 -0.00238693 -0.000104465 -0.00087788 -0.000531321 -2.39917e-05 1215 1212 0 142.714 -507.01 
0.168136 0.026027 0.00881447 0.165845 0.0214179 0.0202648 6.71062e-05 -0.00238693 -0.000104465 0.00315277 -0.000790631 -0.00150486 1215 1394 0 1039.44 1839.86 
0.176923 0.0257374 0.00456672 0.1817 0.035966 0.00694927 -6.90548e-05 0.00142288 0.000616493 -0.000477421 0.00207126 -0.00071053 1053 1122 0 -2554.8 -5462.11 
0.176923 0.0257374 0.00456672 0.178118 0.0262524 0.0156753 -6.90548e-05 0.00142288 0.000616493 0.000839409 0.00142515 -0.000671304 1053 1340 0 -317.011 -129.032 
0.21388 0.0225558 0.00483618 0.224802 0.0238717 0.00612373 -0.000722363 0.00217059 -0.000231671 0.000146368 0.000565478 -0.00025012 1554 1441 0 -1965.78 -335.045 
0.21388 0.0225558 0.00483618 0.215824 0.0332794 0.00607597 -0.000722363 0.00217059 -0.000231671 0.00340048 0.00297128 -0.000644554 1554 1141 0 -2173.6 -14866.7 
0.21388 0.0225558 0.00483618 0.215019 0.0155567 0.0120594 -0.000722363 0.00217059 -0.000231671 0.00216513 0.000833151 -0.0023589 1554 1048 0 -2455.63 17460.5 
0.21388 0.0225558 0.00483618 0.20659 0.0251013 0.0144926 -0.000722363 0.00217059 -0.000231671 -0.000641561 -0.0032328 -0.000868881 1554 1292 0 6130.98 -2605.33 
0.224802 0.0238717 0.00612373 0.232947 0.0216944 0.0162405 0.000146368 0.000565478 -0.00025012 -0.00126566 -0.00174156 0.00139475 1441 1495 0 -2039.25 399.682 
0.224802 0.0238717 0.00612373 0.225997 0.0341218 0.0147669 0.000146368 0.000565478 -0.00025012 0.00115113 0.00129055 0.00306808 1441 1203 0 -1178.73 -11078.6 
0.243766 0.0207443 0.00556251 0.247355 0.0331213 0.00766289 0.00244572 0.000230816 -0.00146443 -0.000584523 0.000554248 5.62489e-05 1556 1477 0 -2607.3 -8075.94 
0.243766 0.0207443 0.00556251 0.245339 0.0190145 0.015574 0.00244572 0.000230816 -0.00146443 -0.00115459 0.00182213 0.000124797 1556 1100 0 -2760.97 2851.1 
0.260014 0.028262 0.00603773 0.271708 0.0338121 0.00688796 -0.00189868 0.00226332 -0.00237497 -0.000468203 -0.000843989 0.00159908 1185 2363 0 -11526.8 -5858.3 