ITEM: TIMESTEP
2000
ITEM: NUMBER OF ATOMS
7996
ITEM: BOX BOUNDS pp ff ff
0 1.1
0 0.18
0 0.08
ITEM: ATOMS id type x y z radius vx vy vz fx fy fz omegax omegay omegaz c_3 c_5[1] c_5[2] c_5[3] c_5[4] c_6 c_7 
224 1 0.00530003 0.00469058 0.00468707 0.00469558 0.000165194 6.10728e-05 -8.55661e-05 338.921 128.017 -175.913 -0.000222897 -0.000159036 -0.00061803 2 4.98072e-09 1.82965e-09 -2.5821e-09 5.90106e-09 2.53407e-10 2.41093e-06 
466 1 0.0152654 0.0058539 0.00788902 0.00585555 -4.63215e-05 6.12837e-05 4.71182e-05 -187.072 248.613 193.799 3.45852e-05 5.08989e-05 5.99566e-05 3 -1.3925e-09 1.83965e-09 1.40845e-09 2.70316e-09 1.23455e-11 9.90367e-07 
28 1 0.0275392 0.00643432 0.00737246 0.00646176 -0.00042001 4.77922e-05 0.000136154 -2263.82 261.92 724.878 -7.17703e-05 0.00043827 0.000276285 3 -1.26516e-08 1.43244e-09 4.11649e-09 1.33813e-08 7.48739e-10 3.23209e-05 
217 1 0.0408043 0.00685349 0.00876505 0.00690216 -0.000154672 5.80433e-05 -0.000644969 -1015.73 373.579 -4212.98 0.000386928 0.000338499 3.61567e-05 5 -4.65928e-09 1.75899e-09 -1.94603e-08 2.00874e-08 1.01082e-09 8.85295e-05 
182 1 0.060384 0.00582446 0.00580462 0.0058569 -0.000309903 0.000571698 -0.000669645 -1234.86 2270.42 -2653.07 5.38239e-05 0.000291813 0.000659349 3 -9.33895e-09 1.7245e-08 -2.02479e-08 2.81883e-08 8.75358e-10 0.000106324 
174 1 0.102033 0.00937434 0.00494849 0.0049866 -0.000454591 -0.000345518 0.000199375 -1116.59 -844.146 494.863 -0.00168236 0.00140773 -0.000139228 2 -1.36999e-08 -1.04286e-08 6.00163e-09 1.82335e-08 3.61921e-09 2.75484e-05 
451 1 0.124897 0.00715158 0.00628807 0.00632283 7.41076e-05 0.000111709 -0.000604435 380.752 555.764 -3029.16 0.000606428 1.66554e-05 -0.000105481 3 2.21746e-09 3.37452e-09 -1.82467e-08 1.86881e-08 9.30887e-10 5.88497e-05 
1396 1 0.154775 0.00701159 0.00609486 0.00615431 0.000468306 -0.000176592 -0.000552865 2158.18 -813.443 -2556.62 7.83147e-05 -0.00126535 0.000539424 3 1.4125e-08 -5.32727e-09 -1.66867e-08 2.2502e-08 4.07153e-09 7.8739e-05 
1323 1 0.184964 0.00627695 0.00550097 0.00555479 0.000201469 7.35197e-05 -7.63451e-05 685.32 250.106 -260.686 0.000217967 0.000315243 -4.31056e-05 2 6.06862e-09 2.21467e-09 -2.30178e-09 6.85793e-09 1.91117e-10 5.39493e-06 
1467 1 0.214941 0.00651841 0.00576318 0.00580024 -0.000768715 -0.000292312 -0.000445846 -2967.2 -1134.96 -1727.53 -0.000915628 6.05605e-05 -1.98858e-05 2 -2.31844e-08 -8.80082e-09 -1.3453e-08 2.82126e-08 1.34364e-09 0.000103723 
1548 1 0.246584 0.00818282 0.00943146 0.00652321 -0.000282366 6.20429e-05 0.000336745 -1557.81 351.106 1865.94 6.09334e-05 -0.00014944 -0.000365108 3 -8.51803e-09 1.85724e-09 1.01453e-08 1.33766e-08 4.5727e-10 3.32091e-05 
1470 1 0.268205 0.00975837 0.00981611 0.00551841 -0.000720176 0.000556734 0.00204352 -2391.53 1857.45 6794.08 -0.000987916 0.000780906 -0.00115717 4 -2.17604e-08 1.67994e-08 6.17252e-08 6.75703e-08 3.63653e-09 0.000510817 
2075 1 0.279003 0.00890562 0.00599772 0.00601786 -8.18859e-05 -0.000434401 -0.00010879 -360.196 -1875.35 -456.792 -0.000703302 0.00101022 -0.000537296 3 -2.4559e-09 -1.31002e-08 -3.3112e-09 1.37336e-08 3.45884e-09 2.74325e-05 
2349 1 0.305028 0.00564912 0.00537547 0.00500145 0.000343815 0.000136368 0.000152557 859.48 338.667 379.792 -9.80564e-05 -0.000218897 2.48284e-05 1 1.03555e-08 4.1152e-09 4.60124e-09 1.20558e-08 4.42105e-11 1.2164e-05 
2092 1 0.36823 0.00732054 0.00492534 0.00497452 -0.00035247 6.3011e-06 -0.0004444 -864.449 14.705 -1076.13 0.000495689 -0.000592039 0.000290469 2 -1.06033e-08 1.92299e-10 -1.34457e-08 1.71247e-08 5.03684e-10 2.40575e-05 
2514 1 0.429845 0.00963269 0.00622812 0.00624857 -0.000242495 -8.50394e-05 -4.24125e-05 -1179.64 -415.598 -206.708 -4.95517e-05 0.000359074 0.000154124 2 -7.29917e-09 -2.55619e-09 -1.27757e-09 7.83863e-09 3.59048e-10 1.00519e-05 
3440 1 0.451952 0.00732882 0.0050379 0.00509476 0.00065818 0.000395029 -0.000898566 1717.01 1030.77 -2354.9 1.19027e-05 -0.00212786 -0.000223375 3 1.98558e-08 1.19165e-08 -2.71276e-08 3.56674e-08 3.81762e-09 0.000112181 
3381 1 0.482537 0.00875688 0.00869715 0.00659951 -0.000144357 0.000267812 3.06056e-05 -844.357 1531.85 171.779 0.000106943 0.000679618 0.00019936 3 -4.32422e-09 8.07632e-09 9.28164e-10 9.20801e-09 1.56044e-09 1.6323e-05 
4412 1 0.547646 0.00656687 0.0045348 0.00459266 -0.000810221 0.000365702 -0.000641079 -1554.79 692.119 -1231.42 0.00157335 -0.00150132 0.000136889 3 -2.44068e-08 1.10598e-08 -1.93503e-08 3.30522e-08 2.357e-09 7.06734e-05 
331 1 0.00159224 0.0154935 0.005229 0.00527653 0.000385323 -9.87284e-05 3.51847e-06 1131.21 -292.715 8.753 0.000354933 0.000410265 -0.00028725 3 1.1583e-08 -2.95923e-09 1.10635e-10 1.19556e-08 3.74436e-10 1.41189e-05 
565 1 0.0172157 0.016131 0.00484007 0.00481491 1.56554e-06 -1.50415e-05 -8.82418e-06 0 0 0 0.0383976 0.362587 0.0364873 0 9.39318e-11 -9.02486e-10 -5.2945e-10 1.05053e-09 8.4421e-05 2.07845e-08 
16 1 0.0300931 0.0185991 0.0060972 0.0060891 0.000404377 0.000195851 -0.000347744 1819.21 880.884 -1546.48 0.000434037 -0.000570054 -0.000248404 5 1.21886e-08 5.90402e-09 -1.05173e-08 1.71474e-08 1.16948e-09 4.42645e-05 
577 1 0.0412763 0.0183255 0.00514224 0.0051986 0.000484315 -1.81472e-05 0.000816527 1345.39 -42.3322 2238.62 -0.000591416 -0.00131281 -0.000198812 5 1.46022e-08 -5.72193e-10 2.47613e-08 2.87519e-08 1.94896e-09 7.69366e-05 
315 1 0.0512676 0.0125135 0.00546536 0.005489 -0.000292728 0.000151113 -7.85856e-05 -971.345 498.221 -270.872 0.00120408 -0.000164652 -0.00018865 3 -8.79249e-09 4.5472e-09 -2.3365e-09 1.01708e-08 1.83097e-09 1.15213e-05 
480 1 0.0718114 0.0114711 0.00697925 0.00700862 -0.000512352 -0.000138794 0.000737964 -3519.28 -934.624 5034.88 -0.000756604 7.64522e-05 -0.000553802 4 -1.54201e-08 -4.20097e-09 2.22808e-08 2.74201e-08 3.63595e-09 0.000172792 
549 1 0.0890607 0.0112009 0.00707784 0.00711565 0.000289091 -0.000139582 0.00013644 2087.82 -998.724 980.476 -0.000599698 -0.000433927 0.000337916 4 8.68826e-09 -4.20622e-09 4.11204e-09 1.04922e-08 2.93444e-09 2.66253e-05 
137 1 0.105883 0.0195675 0.0059593 0.00599922 8.98375e-05 -0.000187715 -2.4123e-05 382.012 -819.844 -89.9479 -0.000627633 -0.000713366 0.000253688 4 2.71296e-09 -5.62426e-09 -7.55807e-10 6.28997e-09 1.82598e-09 5.75579e-06 
53 1 0.113865 0.01179 0.0051523 0.00521332 0.000590444 -0.000593068 0.000944171 1660.48 -1662.76 2648.49 -0.00110768 -0.000951532 -7.85464e-05 3 1.77814e-08 -1.78764e-08 2.85133e-08 3.80625e-08 2.0008e-09 0.000136991 
1355 1 0.125992 0.018355 0.00998685 0.00555693 0.000127387 -0.000194903 -0.000276767 442.873 -662.89 -952.987 0.000425055 0.000651787 0.000247767 6 3.82083e-09 -5.88446e-09 -8.32547e-09 1.08876e-08 8.58507e-10 1.36338e-05 
1505 1 0.135531 0.0115831 0.00525529 0.00531902 -2.88525e-05 -5.57629e-05 0.00109064 -83.7867 -161.664 3243.63 0.000777619 -0.000370669 -2.90585e-05 2 -8.75998e-10 -1.69413e-09 3.29529e-08 3.3008e-08 7.68465e-10 0.000109082 
1500 1 0.145699 0.0134251 0.00485623 0.00471232 -2.67775e-06 5.7443e-06 2.49356e-05 0 0 0 0.840714 0.47781 1.1307 0 -1.60649e-10 3.44658e-10 1.49613e-09 1.5437e-09 0.00124965 4.20715e-08 
580 1 0.163082 0.0134508 0.00448783 0.00450969 -3.69522e-05 0.000364121 -9.35811e-05 -70.8177 659.127 -172.749 0.000907735 -0.00177868 2.7482e-05 4 -1.09607e-09 1.09852e-08 -2.81216e-09 1.13923e-08 1.80739e-09 7.94951e-06 
1341 1 0.172304 0.0169144 0.00539437 0.00541474 2.89121e-05 -0.000274218 -0.00022183 94.5191 -866.043 -695.236 -9.25543e-05 -0.000258197 4.21851e-05 4 8.61554e-10 -8.25755e-09 -6.70503e-09 1.06718e-08 8.70881e-11 1.20762e-05 
1137 1 0.186266 0.0189738 0.00720484 0.0072569 -3.49765e-05 -0.000156326 -0.000236185 -266.971 -1188.18 -1789.86 -1.61906e-05 0.00017607 0.000232385 6 -1.05217e-09 -4.70915e-09 -7.12972e-09 8.60906e-09 4.16911e-10 1.89047e-05 
1433 1 0.196253 0.0118644 0.00519655 0.00521925 0.000316144 0.000245318 -0.000226714 891.438 691.007 -640.986 0.000201993 -0.000497747 7.02186e-05 3 9.52767e-09 7.39533e-09 -6.83778e-09 1.38644e-08 2.76148e-10 1.82662e-05 
1113 1 0.205773 0.016326 0.00526645 0.0053166 3.05535e-05 -4.98242e-05 -0.000412964 96.3121 -151.373 -1227.33 -9.93885e-05 6.26865e-07 0.000606886 4 9.05177e-10 -1.49295e-09 -1.24749e-08 1.25965e-08 3.90295e-10 1.5878e-05 
1315 1 0.223524 0.0128997 0.00496988 0.00499941 0.000142898 -0.000614338 0.000586947 347.468 -1522.61 1447.57 -0.000448139 8.40836e-05 0.000561257 3 4.32909e-09 -1.85092e-08 1.77407e-08 2.60012e-08 3.96766e-10 5.63396e-05 
1217 1 0.23484 0.0126976 0.00643613 0.00647084 0.000193113 0.000338862 -0.000313293 1038.81 1816.84 -1679.43 0.000110617 -4.64062e-05 0.00029159 4 5.81981e-09 1.02215e-08 -9.46397e-09 1.50969e-08 2.74011e-10 4.11862e-05 
1408 1 0.257565 0.0155058 0.00691313 0.00696789 0.000289819 6.80026e-05 0.000123197 1935.09 466.103 860.07 -0.0005959 -0.00128297 0.000110148 4 8.74858e-09 2.03697e-09 3.67427e-09 9.70501e-09 8.03377e-09 2.13277e-05 
2213 1 0.288775 0.0168403 0.00657475 0.00663032 -4.51834e-05 0.000210967 0.000151128 -280.092 1209.12 883.952 0.000706973 -0.000459688 -0.000420888 4 -1.33333e-09 6.3741e-09 4.54599e-09 7.94184e-09 2.76524e-09 1.22842e-05 
2495 1 0.299406 0.0134926 0.0046977 0.00471188 -0.000268556 -0.000370351 -0.000307224 -557.691 -769.521 -638.045 -0.000379979 0.000345444 0.000112571 3 -8.09065e-09 -1.11558e-08 -9.27009e-09 1.66086e-08 1.55958e-10 1.92948e-05 
2449 1 0.316443 0.0131507 0.00608349 0.0061398 -0.000150242 0.000173016 -0.000291906 -702.15 791.814 -1348.04 0.000556638 7.8319e-05 -0.000205099 3 -4.50367e-09 5.21753e-09 -8.79543e-09 1.11743e-08 7.5897e-10 1.93599e-05 
2598 1 0.329429 0.0163212 0.00728889 0.0073359 -0.000176222 -0.000280891 -0.000135554 -1388.07 -2221.92 -1065.31 0.000295125 0.000647616 -5.64327e-05 5 -5.30333e-09 -8.44281e-09 -4.08721e-09 1.07755e-08 2.63082e-09 3.0771e-05 
2171 1 0.341336 0.0102465 0.00609612 0.00614729 -0.000669167 -0.000442471 -0.000919864 -3079.96 -2042.25 -4234.87 -0.000409616 0.00174052 0.000943106 3 -2.01724e-08 -1.33275e-08 -2.77722e-08 3.68217e-08 8.71574e-09 0.00021019 
2542 1 0.352971 0.0124732 0.00523648 0.00495858 -1.16542e-05 4.26834e-06 -2.01097e-05 0 0 0 6.31013 11.8245 0.00865383 0 -6.99218e-10 2.56101e-10 -1.20658e-09 1.41786e-09 0.130828 4.13528e-08 
2238 1 0.363743 0.0168986 0.00485206 0.00450591 -1.38164e-06 -2.49468e-05 1.98689e-05 0 0 0 -0.0134769 -0.167737 0.000847214 0 -8.29337e-11 -1.49681e-09 1.19214e-09 1.91533e-09 1.27788e-05 5.66224e-08 
2264 1 0.389303 0.0104286 0.00657553 0.00662574 0.00126034 -9.78706e-05 -0.000573548 7259.97 -557.61 -3293.35 -4.95739e-05 -0.00271432 0.00171032 4 3.80035e-08 -2.96082e-09 -1.73363e-08 4.18758e-08 3.1939e-08 0.000340439 
2611 1 0.38223 0.0189984 0.00469748 0.00474579 -0.00126345 -0.000842609 -0.000669786 -2634.92 -1783.88 -1414.81 -0.00196734 0.00407109 -0.00242894 4 -3.82289e-08 -2.53876e-08 -2.02363e-08 5.01546e-08 1.54078e-08 0.00017885 
2233 1 0.401963 0.0105181 0.00609684 0.00613383 0.000796006 0.000976817 0.00112203 3649.12 4462.22 5098.71 -0.00110938 -0.00146066 0.000905043 4 2.39796e-08 2.9458e-08 3.39384e-08 5.09373e-08 8.82466e-09 0.000399024 
3125 1 0.417556 0.0118882 0.00725809 0.00604873 3.70915e-05 3.08248e-05 2.88135e-05 0 0 0 0.036391 0.0450861 -0.00460536 0 2.22544e-09 1.84949e-09 1.72881e-09 3.37075e-09 6.64557e-06 4.24238e-07 
3507 1 0.44242 0.0146492 0.00703881 0.00714459 0.000617406 -0.000142318 -0.000318179 4492.5 -1005.38 -2321.86 -2.72767e-06 0.000170554 0.000458271 4 1.8574e-08 -4.31831e-09 -9.57914e-09 2.13401e-08 1.08143e-09 0.000111348 
3293 1 0.453776 0.0179333 0.0048703 0.00486649 1.53463e-06 -4.1096e-08 3.29267e-07 0 0 0 5.33021 -6.66263 3.77545 0 9.20375e-11 -2.46331e-12 1.97568e-11 9.41663e-11 0.0577291 1.72567e-10 
3556 1 0.471892 0.0132733 0.00543 0.00544882 -3.24617e-05 -0.000175482 -0.000109925 -110.489 -569.726 -351.814 -0.000308828 -7.90964e-05 -0.000206428 3 -9.61017e-10 -5.27086e-09 -3.3206e-09 6.30333e-09 1.68316e-10 4.31657e-06 
3164 1 0.49501 0.0128293 0.00668822 0.00672345 -0.00143083 -0.000606831 -0.000114318 -8612.41 -3644.58 -686.23 -0.000509034 0.00123127 -0.00158069 4 -4.31508e-08 -1.83124e-08 -3.45495e-09 4.70029e-08 1.42654e-08 0.000448316 
3543 1 0.510033 0.0102338 0.00671806 0.00675326 9.66182e-05 6.46072e-05 -0.000575673 577.582 396.172 -3522.21 0.000516559 -0.000466364 -0.000107164 3 2.93099e-09 1.94544e-09 -1.73685e-08 1.77212e-08 1.692e-09 6.4521e-05 
3282 1 0.526042 0.013233 0.00646163 0.00652126 -0.000517541 -0.000244007 0.000149381 -2859.73 -1361.69 837.224 0.000292119 0.000235032 -0.000774306 3 -1.55772e-08 -7.3226e-09 4.48397e-09 1.7787e-08 2.1207e-09 5.89048e-05 
3205 1 0.538034 0.0101172 0.00572653 0.00575881 0.000102779 0.000413919 -0.00097445 373.793 1573.28 -3697.67 0.00097225 -0.000549051 0.000894691 3 3.13326e-09 1.24618e-08 -2.93969e-08 3.20825e-08 3.1502e-09 0.000131246 
204 1 0.00999781 0.02583 0.00732078 0.00736324 -0.000214445 4.20629e-05 -0.000125933 -1703.78 323.348 -988.235 0.000263059 0.000222942 0.000190313 7 -6.45914e-09 1.27902e-09 -3.81105e-09 7.60792e-09 8.1571e-10 1.5425e-05 
15 1 0.0215771 0.0248557 0.00461236 0.00466038 -0.000628188 -8.30698e-05 0.000975408 -1246.02 -168.625 1937.74 -0.00106044 0.00232957 -0.00104934 4 -1.89835e-08 -2.49328e-09 2.95285e-08 3.51926e-08 4.08725e-09 8.31766e-05 
99 1 0.047377 0.0267914 0.00531052 0.00530795 5.67145e-05 0.000541549 -0.00124195 175.277 1602.44 -3680.42 0.000723883 0.000409079 -0.00024462 4 1.69098e-09 1.63565e-08 -3.74942e-08 4.09415e-08 7.68956e-10 0.000167034 
501 1 0.0574525 0.0220754 0.00853604 0.00634983 -3.24686e-05 -0.00058784 0.000213979 -164.617 -2983.28 1061.18 -0.00119907 0.000603066 -0.000125328 5 -9.80929e-10 -1.77462e-08 6.50237e-09 1.89254e-08 4.55744e-09 6.10195e-05 
237 1 0.0683107 0.0228516 0.00509417 0.0051466 -0.00023953 0.000754835 -0.00136409 -649.088 2018.21 -3656.61 0.00092849 -0.000467956 -0.00124865 4 -7.21095e-09 2.28116e-08 -4.12744e-08 4.77068e-08 2.31609e-09 0.000205991 
272 1 0.080526 0.0227917 0.00756102 0.00734264 1.14835e-05 -0.000291191 -0.000405039 91.4988 -2305.12 -3202.15 -0.000262241 -0.000115617 -0.000334673 6 3.44957e-10 -8.7682e-09 -1.22011e-08 1.50288e-08 1.0067e-09 5.98658e-05 
201 1 0.0943663 0.0245725 0.00653089 0.00656694 -1.52404e-05 6.5063e-06 2.39866e-05 -90.2665 36.5848 133.577 5.79916e-05 -0.000115902 8.40388e-05 3 -4.52357e-10 1.95879e-10 7.25818e-10 8.77387e-10 7.07915e-11 1.46198e-07 
78 1 0.11771 0.020797 0.00459655 0.00465025 -0.000200115 0.000362546 -0.000440352 -396.403 712.227 -869.626 -5.95572e-05 -1.01302e-05 0.000983478 4 -6.03825e-09 1.09652e-08 -1.33287e-08 1.82852e-08 5.12937e-10 2.23177e-05 
516 1 0.111984 0.0294245 0.00475034 0.00455383 1.19204e-05 2.94078e-06 -2.17602e-05 0 0 0 0.0881109 0.00213377 -0.0703313 0 7.15233e-10 1.76449e-10 -1.30561e-09 1.49911e-09 6.04929e-06 3.58054e-08 
1302 1 0.131957 0.0245891 0.00461671 0.00464245 3.56603e-05 7.51626e-05 0.000363746 73.6773 149.32 718.866 0.000227564 0.000713665 0.000259662 3 1.06165e-09 2.26287e-09 1.09926e-08 1.12732e-08 3.29288e-10 8.46129e-06 
1406 1 0.149874 0.0267325 0.00590174 0.00596315 -0.000161878 1.93753e-05 -0.000471684 -687.24 82.4198 -1969.39 0.000630549 7.99009e-05 0.00022715 5 -4.86506e-09 5.81516e-10 -1.42679e-08 1.50858e-08 8.34552e-10 3.20773e-05 
1306 1 0.15965 0.0221672 0.00487703 0.00488029 -8.21495e-05 -2.04455e-05 4.75106e-05 -193.12 -44.1868 108.168 -0.000108464 -0.000371734 0.00023372 3 -2.46326e-09 -6.28239e-10 1.43953e-09 2.92141e-09 1.37593e-10 6.65302e-07 
1215 1 0.168136 0.0260279 0.00881448 0.00519282 -9.66096e-06 -0.000349341 6.70622e-06 -23.9805 -975.01 16.4057 0.000324868 0.000417938 0.000439809 5 -3.01098e-10 -1.05295e-08 2.09705e-10 1.05359e-08 4.34493e-10 1.0391e-05 
1053 1 0.176923 0.0257368 0.00456631 0.00460978 -6.44437e-06 0.000285809 0.000246068 -12.266 547.812 468.625 0.00149401 0.000518573 0.000761144 5 -1.9511e-10 8.64113e-09 7.47012e-09 1.14241e-08 1.55782e-09 8.46514e-06 
1221 1 0.197871 0.0227229 0.0049666 0.00478805 -6.55761e-06 9.57217e-06 -2.59263e-05 0 0 0 -12.3392 -5.48195 -1.96337 0 -3.93463e-10 5.74332e-10 -1.55558e-09 1.70426e-09 0.113816 5.37899e-08 
1554 1 0.21388 0.022555 0.00483604 0.00492875 -0.000266824 0.000320422 0.00015579 -616.198 756.901 353.549 0.00188863 0.00148194 0.00070082 5 -8.09786e-09 9.66265e-09 4.76274e-09 1.34769e-08 4.4195e-09 1.44088e-05 
1441 1 0.224802 0.0238715 0.00612392 0.00616631 1.64239e-05 9.1068e-05 -0.000119974 77.0651 422.311 -544.44 -1.86917e-06 4.30161e-06 -0.000279521 4 4.93881e-10 2.74674e-09 -3.64732e-09 4.59254e-09 1.69275e-10 3.26922e-06 
1066 1 0.235298 0.0287089 0.00566165 0.00525737 1.00312e-05 -2.24105e-05 -5.2023e-06 0 0 0 0.00980289 0.00543085 0.00250125 0 6.01852e-10 -1.34463e-09 -3.12137e-10 1.50589e-09 1.28656e-07 5.55967e-08 
1556 1 0.243765 0.0207443 0.00556304 0.0056245 0.000322728 -3.04549e-05 -0.000213637 1141.88 -99.5948 -759.005 -0.000145493 -0.00098602 3.12012e-05 3 9.71538e-09 -9.36879e-10 -6.43538e-09 1.1691e-08 1.35984e-09 1.62886e-05 
1185 1 0.260014 0.0282613 0.00603861 0.00611018 -0.00029735 0.000273358 -0.000376767 -1341.02 1244.22 -1708.55 0.000724505 0.000120194 0.000480886 4 -8.96821e-09 8.22223e-09 -1.13651e-08 1.66493e-08 1.59448e-09 4.22721e-05 
1411 1 0.273368 0.0203132 0.00669101 0.00676063 0.000492615 8.10275e-05 -0.000803153 3013.15 494.889 -4906.22 -0.000869353 -0.000119865 -0.000724138 6 1.48551e-08 2.44466e-09 -2.42657e-08 2.85565e-08 4.44181e-09 0.00016784 
2484 1 0.306659 0.0225337 0.00712241 0.00716326 -0.000160998 -0.000254927 -0.00012173 -1176.92 -1869.63 -886.702 -0.000219734 0.000129856 5.49099e-05 5 -4.85007e-09 -7.67149e-09 -3.67581e-09 9.79217e-09 3.12323e-10 2.36033e-05 
2316 1 0.319929 0.0266311 0.00674078 0.0067824 8.16965e-05 0.000106692 0.000224398 500.039 653.415 1380.38 -0.000546252 -0.000376951 0.000247714 7 2.47043e-09 3.22612e-09 6.78554e-09 7.90913e-09 1.74986e-09 1.29639e-05 
2412 1 0.335539 0.0273864 0.00541087 0.0054992 -0.000496242 -0.000336094 0.000608039 -1622.26 -1091.84 2004.52 -0.000758624 0.00216438 -0.000183476 5 -1.49846e-08 -1.01682e-08 1.83548e-08 2.57843e-08 6.46808e-09 7.36273e-05 
2369 1 0.345734 0.021714 0.00617888 0.00624011 -0.000438409 7.16529e-05 0.000305694 -2122.42 343.483 1484.26 0.0011005 -4.77307e-05 -0.00125247 5 -1.31932e-08 2.16216e-09 9.20628e-09 1.62324e-08 6.39503e-09 4.29147e-05 
2452 1 0.354204 0.0283819 0.00467115 0.00473898 0.000950899 -0.00108492 0.000146701 1988.68 -2288.69 307.383 -0.00195941 -0.00135703 -0.000918248 3 2.87086e-08 -3.26739e-08 4.43688e-09 4.37202e-08 3.78839e-09 0.000135927 
2191 1 0.356325 0.0203791 0.00966851 0.0046315 -9.52211e-06 2.04549e-05 -3.26036e-05 0 0 0 0.0289002 -0.0969856 0.0649806 0 -5.71321e-10 1.2273e-09 -1.95622e-09 2.37896e-09 7.48878e-06 9.48625e-08 
2437 1 0.373102 0.0254868 0.00661979 0.00670019 -7.08014e-06 0.000566856 -0.000362399 -39.4041 3362.55 -2146.73 0.00128359 -0.000324767 -0.00182778 6 -2.17659e-10 1.71104e-08 -1.09616e-08 2.03217e-08 1.67107e-08 8.27059e-05 
2481 1 0.386093 0.0273346 0.00444636 0.00452486 0.000923809 -0.0014494 -0.000172398 1718.89 -2625.87 -317.994 -0.00588143 0.000122158 -0.00347006 4 2.77102e-08 -4.38069e-08 -5.19658e-09 5.20952e-08 2.14967e-08 0.000167902 
2392 1 0.39642 0.0204788 0.00535103 0.00541046 -0.000903169 5.0303e-05 -0.0015834 -2794.21 194.482 -4955.75 -0.0027629 0.00345803 -0.00278227 3 -2.73245e-08 1.41478e-09 -4.7841e-08 5.51125e-08 3.07871e-08 0.000319893 
2331 1 0.393467 0.0290712 0.00971471 0.00479589 0.00344284 0.001428 0.000292465 7297.38 3020.26 606.884 0.00426237 -0.00761058 -0.00344365 8 1.04842e-07 4.35109e-08 8.958e-09 1.13865e-07 5.42109e-08 0.000936493 
3323 1 0.408436 0.0206794 0.00596058 0.00598448 0.000190674 0.000154672 -0.000137315 830.242 676.146 -570.295 -0.00112195 0.000626696 -0.000234735 4 5.70695e-09 4.62338e-09 -4.17291e-09 8.44737e-09 3.18263e-09 1.03017e-05 
3369 1 0.418957 0.0227498 0.004827 0.00484777 0.000145347 -0.000588032 -0.000163055 331.959 -1333.05 -370.656 -8.73323e-05 -0.000253403 5.22093e-05 3 4.36617e-09 -1.77019e-08 -4.91299e-09 1.88828e-08 4.85027e-11 2.72283e-05 
3581 1 0.430581 0.0228211 0.00697817 0.00702078 4.69989e-05 4.07301e-05 -3.7462e-05 314.467 282.374 -253.43 -0.000272035 -0.000738057 0.00010866 4 1.4275e-09 1.22411e-09 -1.13561e-09 2.19677e-09 2.6131e-09 1.10797e-06 
3354 1 0.465726 0.0240672 0.00708256 0.00711615 0.000603524 -0.000246219 -0.000201824 4303.86 -1776.08 -1447.7 -0.000488617 0.000197963 -9.09838e-05 4 1.8207e-08 -7.40286e-09 -6.08571e-09 2.0575e-08 1.26892e-09 0.000101907 
3400 1 0.480284 0.0203901 0.00466183 0.00463612 1.78087e-05 -1.34419e-05 1.58929e-05 0 0 0 -20.1573 -14.0631 -3.72826 0 1.06848e-09 -8.06515e-10 9.53574e-10 1.6436e-09 0.321567 4.54178e-08 
3491 1 0.490842 0.0229212 0.00446829 0.00453481 0.00173372 0.00110294 0.000291815 3156.88 2014.06 539.285 0.0044651 -0.00362305 -0.00487856 3 5.24295e-08 3.33279e-08 8.80897e-09 6.27471e-08 2.64939e-08 0.000243976 
3270 1 0.508848 0.0214249 0.0047143 0.00475454 4.84925e-05 4.59395e-05 0.00117297 103.526 94.9449 2487.45 3.84497e-05 -0.000664196 0.00147157 3 1.45938e-09 1.39642e-09 3.54561e-08 3.55136e-08 1.53953e-09 9.01073e-05 
3190 1 0.519357 0.0259746 0.00653285 0.00660211 -2.86231e-05 0.000403564 -7.32359e-05 -153.668 2315.31 -423.422 -4.17754e-05 -0.000832795 -0.000189383 4 -8.77697e-10 1.21441e-08 -2.20225e-09 1.23734e-08 2.22814e-09 2.95468e-05 
3534 1 0.532163 0.0245145 0.00630955 0.00638151 0.000740909 -0.000547143 0.000532448 3782.62 -2807.8 2743.88 -0.000317836 -0.00125637 -0.000404909 6 2.23884e-08 -1.65088e-08 1.60727e-08 3.21265e-08 4.7398e-09 0.000178649 
3401 1 0.544095 0.0204357 0.00627653 0.00633981 0.000417389 0.000728487 -0.000130189 2110.48 3662.92 -663.118 0.00107212 -1.7331e-06 -0.000713413 6 1.25762e-08 2.19858e-08 -3.92073e-09 2.56302e-08 4.12657e-09 0.000111721 
34 1 0.0186495 0.0336778 0.00462282 0.00464239 -7.16629e-05 -3.23551e-07 0.000118529 -148.382 -3.14378 241.695 -7.04309e-05 -0.000761855 -0.000871138 3 -2.13192e-09 1.5996e-12 3.54847e-09 4.13965e-09 7.04224e-10 1.16584e-06 
19 1 0.0295146 0.0312557 0.00561932 0.00565025 0.00038667 -0.00053096 -0.000386945 1370.86 -1899.37 -1372.56 -0.00109639 -0.000541275 0.00052951 5 1.16836e-08 -1.60019e-08 -1.1709e-08 2.30145e-08 2.48404e-09 6.36727e-05 
310 1 0.0397537 0.0333797 0.00481266 0.00485231 -7.75281e-05 -0.000283868 0.000811106 -179.395 -632.85 1818.92 0.0019079 0.000336716 0.00152495 4 -2.32135e-09 -8.59058e-09 2.45551e-08 2.61178e-08 3.97271e-09 5.16605e-05 
256 1 0.053627 0.0358488 0.00572254 0.00575317 7.82638e-05 -9.15084e-05 0.00039314 297.143 -340.684 1475.14 0.000316809 -0.000146807 -6.63074e-05 3 2.35514e-09 -2.76907e-09 1.18889e-08 1.24323e-08 1.93425e-10 1.9553e-05 
534 1 0.0715025 0.0343383 0.00838532 0.00731918 0.00018914 3.56545e-05 0.000476469 1479.45 284.857 3705.63 -0.00020405 -0.000392097 -0.000152001 5 5.69898e-09 1.06783e-09 1.43802e-08 1.55051e-08 1.11491e-09 6.28867e-05 
243 1 0.0853231 0.0349112 0.00585877 0.0059026 -3.90376e-05 0.000117145 0.000890259 -156.462 478.678 3636.56 -0.000141227 0.000612752 -8.35593e-05 3 -1.18234e-09 3.52842e-09 2.68602e-08 2.71167e-08 7.00457e-10 0.000100901 
370 1 0.0975586 0.0387683 0.00700298 0.00703193 0.000232425 -6.92774e-05 -0.00031518 1607.23 -484.613 -2174.94 0.000104931 0.000245196 -0.000247799 5 7.00185e-09 -2.08008e-09 -9.51231e-09 1.19932e-08 5.53633e-10 3.34021e-05 
1339 1 0.122623 0.0301989 0.00881382 0.00681452 5.83e-05 -2.93281e-05 0.000158483 365.519 -178.272 998.021 8.46225e-06 3.02243e-05 0.000130942 4 1.76089e-09 -8.94062e-10 4.77873e-09 5.17072e-09 6.47309e-11 5.64614e-06 
1473 1 0.139109 0.0323155 0.00596266 0.00600314 0.000155357 -1.68283e-05 -0.000308323 669.583 -72.9134 -1317.99 -0.000253714 -0.000451278 5.86143e-05 3 4.67582e-09 -5.06285e-10 -9.31676e-09 1.04365e-08 5.14175e-10 1.56998e-05 
1514 1 0.149914 0.0382063 0.00551175 0.00554914 -0.000153003 4.25217e-05 0.000288302 -527.574 146.458 966.318 7.84362e-05 0.000278169 0.000652592 4 -4.58721e-09 1.27469e-09 8.73027e-09 9.94409e-09 6.51192e-10 1.12436e-05 
1271 1 0.159988 0.0328855 0.00585931 0.00590049 -0.000131694 0.000163306 1.59945e-05 -536.547 654.355 72.7144 0.000486769 0.000287724 -0.00048139 8 -3.9693e-09 4.94486e-09 4.66685e-10 6.35805e-09 9.58242e-10 5.52344e-06 
1563 1 0.169989 0.0369815 0.00497664 0.00499684 -0.000173293 -0.000254952 0.000189702 -427.238 -626.97 471.942 -0.00010475 0.000340267 -0.000404318 3 -5.22752e-09 -7.69761e-09 5.71691e-09 1.09208e-08 2.19652e-10 9.92829e-06 
1122 1 0.1817 0.0359653 0.00694953 0.00696882 -4.03688e-05 0.000277091 -0.000109506 -278.923 1868.22 -736.953 0.000148932 -0.00013063 0.000128502 7 -1.20649e-09 8.34405e-09 -3.30277e-09 9.05467e-09 2.22648e-10 1.85826e-05 
1476 1 0.191845 0.0308788 0.00460288 0.00463048 -5.18169e-05 -5.75783e-05 -4.03161e-05 -106.551 -115.722 -74.7212 -0.000120122 -0.001097 -0.00117793 3 -1.54106e-09 -1.72438e-09 -1.2376e-09 2.62297e-09 1.34746e-09 4.59844e-07 
1429 1 0.201618 0.0324451 0.00529262 0.00528476 1.86437e-06 1.57708e-06 5.03971e-07 0 0 0 0.691193 -1.16303 1.66952 0 1.11855e-10 9.46188e-11 3.0238e-11 1.49595e-10 0.00462454 5.57337e-10 
1141 1 0.215823 0.0332784 0.00607626 0.00611383 0.000452428 0.000348505 -0.000140687 2059.41 1594.98 -632.744 4.91761e-05 -0.000527001 0.000278916 3 1.3619e-08 1.04736e-08 -4.25632e-09 1.77e-08 7.42845e-10 4.80174e-05 
1477 1 0.247356 0.0331212 0.00766285 0.00748057 -7.82922e-05 5.68068e-05 2.02066e-05 -655.366 480.705 165.073 -0.0001142 -0.000192775 0.000161428 4 -2.35754e-09 1.70507e-09 6.13243e-10 2.97344e-09 4.34014e-10 2.48275e-06 
2363 1 0.271709 0.0338124 0.00688716 0.00692532 -0.000118751 -7.72251e-05 0.000421648 -771.378 -521.505 2743.36 6.29594e-05 0.000517343 -0.000321147 6 -3.59435e-09 -2.31112e-09 1.27735e-08 1.34693e-08 1.45027e-09 3.99133e-05 
2382 1 0.284157 0.0348043 0.00560333 0.0056894 -0.00012434 -0.000318292 -0.000973122 -451.224 -1164.95 -3536.54 2.57374e-05 0.000156729 0.000322831 4 -3.75283e-09 -9.58267e-09 -2.94153e-08 3.11636e-08 1.87472e-10 0.000118984 
2320 1 0.300814 0.0388183 0.00577446 0.00588253 0.000248655 0.000460579 -0.000301135 977.981 1838.78 -1214.26 0.000545872 -0.000859339 0.000579521 5 7.54558e-09 1.39188e-08 -9.09304e-09 1.82579e-08 2.34846e-09 4.50838e-05 
2474 1 0.312352 0.03674 0.00588623 0.00593456 -0.000127421 -0.000971158 -0.000252752 -523.229 -4024.66 -1057.35 -0.00114335 1.75193e-05 0.000715951 4 -3.85061e-09 -2.92679e-08 -7.60872e-09 3.04849e-08 3.25512e-09 0.000129901 
2423 1 0.325675 0.0367775 0.00499586 0.00504958 6.59621e-05 0.000297212 0.000122015 159.956 752.552 302.136 -2.86815e-05 0.00100769 -0.000176925 4 2.01619e-09 8.9746e-09 3.71519e-09 9.92023e-09 8.35554e-10 8.41256e-06 
2348 1 0.335867 0.0393887 0.00553041 0.00554281 -0.000943111 -0.000682271 -0.000606253 -3172.94 -2285.48 -2044.74 -0.00037727 0.00178303 0.00121396 4 -2.84623e-08 -2.06155e-08 -1.83059e-08 3.96258e-08 6.09501e-09 0.000178158 
2448 1 0.344735 0.0331684 0.00531897 0.0053858 -0.000136147 0.00134297 0.00050713 -427.611 4106.84 1555.97 0.00257605 0.000516874 0.000756915 6 -4.085e-09 4.06079e-08 1.53498e-08 4.3604e-08 8.23084e-09 0.000197298 
2266 1 0.354291 0.0387849 0.00575674 0.00579047 0.000156441 -0.000356269 0.000110711 606.176 -1372.15 428.989 -0.00098746 0.000417279 -4.85162e-05 4 4.70646e-09 -1.07361e-08 3.33567e-09 1.21878e-08 1.82125e-09 1.9299e-05 
2407 1 0.380057 0.0342433 0.00468099 0.00472426 0.00173039 -0.000247774 0.000978554 3604.07 -522.876 2026.67 -0.000618483 -0.00292827 -8.64985e-05 3 5.21772e-08 -7.4434e-09 2.96161e-08 6.04564e-08 5.12536e-09 0.00025701 
3577 1 0.390143 0.0390571 0.00634312 0.00640267 -0.0011869 -8.42443e-05 6.59723e-05 -6162.99 -414.931 343.255 -0.000870182 0.00119545 0.00196641 4 -3.57937e-08 -2.57828e-09 1.9919e-09 3.59416e-08 1.58234e-08 0.000226402 
2623 1 0.404568 0.0333929 0.00740352 0.00743029 0.000145652 1.87367e-06 0.000132238 1246.76 35.4356 1088.71 -0.00013633 0.000411454 7.09456e-06 4 4.32564e-09 3.44558e-11 3.97784e-09 5.8767e-09 1.03405e-09 9.64358e-06 
3498 1 0.418629 0.0336218 0.00882472 0.00676598 2.76858e-05 -0.000402159 8.84552e-05 175.102 -2482.45 546.704 -0.000470556 0.000274741 0.000668378 7 8.28394e-10 -1.21227e-08 2.66543e-09 1.24399e-08 2.5617e-09 3.20421e-05 
3227 1 0.429565 0.0359991 0.00504359 0.00509862 -7.14443e-05 0.000602902 0.000270112 -184.626 1580.78 700.312 0.000557642 0.000304481 0.0009145 4 -2.16283e-09 1.81743e-08 8.18556e-09 2.00496e-08 1.03799e-09 3.55467e-05 
3594 1 0.440871 0.0339477 0.006539 0.00655309 4.23841e-05 -0.000176348 -5.05098e-05 231.898 -984.305 -276.033 1.77478e-05 -9.72809e-05 -0.000162942 4 1.28535e-09 -5.31712e-09 -1.53408e-09 5.68131e-09 1.06659e-10 6.0585e-06 
3309 1 0.451496 0.0387591 0.0046822 0.00477403 0.00053805 -9.84412e-05 -0.000757296 1163.43 -200.055 -1602.65 0.000752023 -0.000513819 -0.00193237 3 1.61894e-08 -3.01303e-09 -2.2982e-08 2.82727e-08 2.74949e-09 5.76728e-05 
3221 1 0.47254 0.0343264 0.00536528 0.00543514 -0.00142122 0.000302335 -0.000409289 -4499.48 956.538 -1305.67 -0.000412896 0.00191713 0.000106206 5 -4.28836e-08 9.12468e-09 -1.23473e-08 4.55491e-08 4.44466e-09 0.000222225 
3176 1 0.483703 0.0308431 0.00630712 0.0064108 -0.000822983 3.68421e-07 0.000356626 -4281.69 29.2025 1878.67 0.000780645 0.00115911 0.000515785 5 -2.48265e-08 -3.40269e-11 1.07389e-08 2.70496e-08 5.83753e-09 0.000128739 
3120 1 0.496026 0.036947 0.00715715 0.00721948 2.50655e-05 -3.03202e-05 -0.000372961 219.17 -218.99 -2783.39 -0.000288863 0.000666011 -6.46852e-05 5 7.17371e-10 -9.22322e-10 -1.1258e-08 1.13184e-08 2.53106e-09 3.21445e-05 
3455 1 0.508345 0.0320449 0.00601136 0.00603234 -0.000481831 -0.000100772 -0.000604086 -2085.82 -424.995 -2618.15 -0.000762505 0.00036036 0.00134217 6 -1.45491e-08 -3.06538e-09 -1.82579e-08 2.35463e-08 4.87623e-09 8.09604e-05 
3485 1 0.516901 0.0381798 0.00455459 0.0046333 5.06301e-05 0.000816606 -0.000258494 92.1416 1602.79 -511.75 0.0030964 -0.000108807 0.000184109 4 1.55841e-09 2.46221e-08 -7.79371e-09 2.58731e-08 4.99746e-09 4.44774e-05 